 30
10002   Energy =     -391.0226842125  kJ/mol
O   -1.3726747  -0.1552490   2.4000752
H   -1.5225698   0.6430745   1.8936733
H   -1.8927283  -0.0364901   3.1948536
O    0.1006113   0.8761179  -2.6670173
H    0.7362920   0.2268962  -2.3659307
H    0.2618820   0.9516930  -3.6075024
O   -1.8195048  -1.8868228   0.2782001
H   -2.0644814  -1.2422095  -0.3856463
H   -1.7711378  -1.3861331   1.0925726
O   -1.7639423   2.0188032   0.7720364
H   -0.9076391   2.2250180   0.3972668
H   -2.2268131   2.8564890   0.7883164
O    0.5868449   2.4518037  -0.4466459
H    1.3420653   1.9964944  -0.0743993
H    0.4521329   2.0364701  -1.2984573
O    1.9140885  -0.8032225  -1.6098292
H    2.2977630  -0.2531253  -0.9268805
H    1.5313918  -1.5418165  -1.1362744
O   -2.2512316   0.2688588  -1.3371564
H   -2.1976819   0.9230125  -0.6404158
H   -1.4950439   0.4502556  -1.8952849
O    2.6083833   0.8285405   0.5195594
H    3.4598644   0.9974440   0.9229001
H    2.1638626   0.2437857   1.1333144
O    1.2670215  -0.9296743   2.0460502
H    0.3793360  -0.6546975   2.2754716
H    1.1429372  -1.6500684   1.4280960
O    0.7176653  -2.7097787  -0.0031831
H    0.7227966  -3.6649391  -0.0654267
H   -0.2100590  -2.4764337   0.0301288
