 21
10002   Energy =     -243.5723973918  kJ/mol
O    0.6034639   2.5500282   1.1720913
H    0.3665374   3.2771815   1.7477178
H   -0.2348716   2.1814762   0.8935324
O   -0.8702079  -1.2024918   1.5649513
H   -1.2618133  -1.8266869   2.1758995
H   -0.8239182  -1.6763056   0.7345359
O    1.6791019  -0.6673913  -1.3667808
H    2.5903789  -0.7387490  -1.6508837
H    1.7340207  -0.4028052  -0.4485160
O    1.6177352   0.0073324   1.2285865
H    1.4063434   0.9396561   1.2767330
H    0.8224680  -0.4347256   1.5258523
O   -0.6106563  -2.2562786  -0.9054550
H    0.3088092  -2.0469158  -1.0697182
H   -1.0987518  -1.6190086  -1.4268778
O   -1.6244710   1.2174553   0.4188421
H   -1.4440131   0.9798401  -0.4906665
H   -1.5004928   0.4043427   0.9084433
O   -0.8070458   0.3487111  -2.0744449
H    0.1068610   0.1149427  -1.9120910
H   -0.7798406   0.8895724  -2.8637237
