 27
10002   Energy =     -344.4352092012  kJ/mol
O    0.4098584  -3.1730407   0.7763620
H    0.9301402  -3.9590177   0.9430322
H    1.0552656  -2.4980746   0.5663566
O   -1.2378247   0.6745576   1.7729889
H   -1.5113029   1.2812014   1.0849301
H   -1.4995812  -0.1878439   1.4505310
O    2.1098888  -1.1713930   0.1666820
H    1.9810355  -0.4414146   0.7722894
H    1.8913176  -0.8115053  -0.6929339
O   -1.8677848  -1.7274349   0.5506878
H   -1.0904090  -2.2783757   0.6422468
H   -2.6005496  -2.3124010   0.7433081
O   -1.6246487   2.2566914  -0.4705223
H   -0.6816438   2.3926809  -0.5626127
H   -2.0102836   3.1114125  -0.6627974
O   -1.4520626  -0.2091842  -1.7258289
H   -1.6500019  -0.8083368  -1.0060593
H   -1.6622670   0.6584669  -1.3805351
O    1.4363100   1.0043891   1.7360788
H    1.7304343   1.2610957   2.6100494
H    0.4945819   0.8622724   1.8319077
O    1.1979658   0.0212078  -2.1564286
H    0.2559774  -0.1219825  -2.0648508
H    1.3823291  -0.1748554  -3.0750152
O    1.0552036   2.3485155  -0.6578072
H    1.3238320   2.0054870   0.1944852
H    1.2341141   1.6353965  -1.2707382
