  6
  102   Energy =      -26.0875718462  kJ/mol
O   -0.2858140  -1.1749469   0.7662596
H   -0.2285513  -0.8984365   1.6808606
H   -0.1582782  -0.3702550   0.2638279
O    0.2747051   1.1050002  -0.7244430
H   -0.4650842   1.3134964  -1.2949455
H    1.0282185   1.0652990  -1.3134026
